36
Properties=species:S:1:pos:R:3:momenta:R:3:forces:R:3 charge=0 spin=1 energy=-53113.42538235886 free_energy=-53113.42538235886 stress="1.323720097541809 3.1065964698791504 1.5170074701309204 3.1065964698791504 -2.694225549697876 2.5840539932250977 1.5170074701309204 2.5840539932250977 -7.023870944976807" pbc="F F F"
C       -2.74142693      23.16136159     -29.66437480       0.00226514      -1.61504123       0.77251192       0.90883362      -0.60538012       0.99489439
C       -3.17187863      22.30578574     -28.63801342      -0.25110038      -0.00325196       0.04069043      -1.36062038       0.38749096      -1.01590419
C       -2.48848604      22.10748875     -27.47595545      -0.54109865       0.21374810      -0.78532695       1.10562193       0.80325961       1.00727749
C       -5.42766898      24.47185580     -31.86575447      -0.05132342      -0.44614920      -0.09925314      -0.92604077      -0.68833995      -2.63141084
C       -3.49599669      23.24946156     -30.96208485      -0.15248007      -0.85741571      -0.69905349      -0.27274472       0.30635533      -0.04446116
C       -5.82239734      23.79515015     -33.06056388       0.89182395      -0.19922363      -0.18134791      -1.41534865       3.12450981      -0.37553740
C       -6.71601317      24.58820760     -33.88636160      -0.35301549      -0.07858522       0.52630803       0.86789310      -0.68574935       0.33832645
C       -1.51905614      23.78634981     -29.39411185       0.21781284       1.02951985       0.41320973      -1.09583950       0.29113698      -1.36011362
C       -1.27405330      22.77878448     -27.23671143       0.59474780       0.12645329      -0.02763598      -1.63389814      -0.81002033      -1.73455906
C       -0.84083601      23.60493803     -28.23078345       0.50225102      -0.37395027       0.32072210       2.93299246       1.01888299       0.98735082
Cl      -4.78045193      21.59387877     -28.86673416       1.11382510      -0.41347459       1.10977002       0.63402975      -0.11064970       0.37728992
O       -3.13239514      22.72419278     -31.97775522      -0.21977788      -1.33423642       0.86604839       0.46560550      -0.36187720      -0.46291652
N       -4.62853376      23.99976490     -30.88362006      -0.17386757      -0.10293585      -0.34577151       1.66644037      -1.81415546      -0.45964301
N       -7.11082531      25.85047507     -33.63527510      -0.49615229       0.02549437      -0.01685573       0.08946349      -1.74769235      -0.07725146
C       -6.67736049      26.34928659     -32.49208592       1.21477762       0.83199428      -0.46602356       0.05900666       2.39534092      -1.02115035
C       -5.84429505      25.75751581     -31.59274559      -0.74488879       0.31871553      -0.59297482      -0.63406849      -0.84034187      -0.65224832
N       -6.94766945      27.74740912     -32.37469216       0.78189845      -0.24881396       0.14159724      -0.30548489      -0.56415123       0.87272298
C       -6.68404354      28.44934964     -31.23503228       0.29657521       0.64905696      -0.22574976       0.35210606      -0.40472895       0.50440645
O       -5.92510753      28.06889480     -30.35250826       0.66167661      -0.42873470       1.46774096      -0.50003499       0.70022905      -0.22230829
C       -7.37028632      29.74938547     -31.15066995      -1.38052466       0.10336725       0.46492236       2.19402242       2.61932373       0.73971766
C       -6.98768903      30.65643835     -30.00948203      -1.21466081      -0.42603199      -0.82719697       0.54755622      -0.13712466       2.14276433
C       -6.36814484      30.99412760     -31.26959384      -0.26767193       0.53591977       0.14752279       1.20128489      -2.75730038       0.60425454
Cl      -0.81221142      24.88728363     -30.51898290       0.07836164       1.73360860       0.42163969      -0.13106804       0.11651308      -0.43100843
H       -2.88759119      21.57966927     -26.65279917      -0.11282586       0.31327348      -0.19534149      -0.61030960      -0.92750686       0.36025491
H       -5.45697988      22.87942780     -33.47484903      -0.15444492       0.00361066      -0.27459296       0.19627896      -0.42610222       0.43882036
H       -7.08659131      24.18468257     -34.84992007       0.12175968      -0.07174914      -0.46568198       0.34505701       0.12236854       0.74391663
H       -0.66643650      22.55725052     -26.40898176       0.16223496       0.03453644      -0.01105855       0.40835062      -0.03405873       1.12490594
H        0.15270583      24.13295078     -28.11546038      -0.13965894      -0.15447719      -0.34133962      -1.33162224      -0.61092836      -0.17543648
H       -4.89538653      24.35311541     -30.03675654      -0.03491315       0.07900049      -0.01013578      -0.18292013       0.94331664       2.71616220
H       -5.49790152      26.31256892     -30.75886492       0.01843946      -0.26109524      -0.13490515       0.27799290      -0.00017169       0.45158714
H       -7.63351475      28.15744378     -32.98951057       0.02189168       0.03496438      -0.11391095       0.05926308      -0.34966710      -0.23626460
H       -8.33362806      29.94522055     -31.46501670       0.24953064      -0.05825355      -0.13838693      -1.78970325      -0.24205871      -1.21721113
H       -6.41359685      30.25647064     -29.15444793       0.09943183       0.04592293       0.12809416      -0.07864797       0.00078103      -0.89522326
H       -7.67260680      31.41537549     -29.65311863      -0.17738464      -0.11709166       0.15440670      -0.47435322      -0.25597852      -0.18752322
H       -6.58344446      31.92515550     -31.68335905       0.12651160       0.11901435       0.05090316      -0.40835857       1.07715690      -1.19725239
F       -5.02691705      30.62623665     -31.45002793      -0.69003785       0.99214361      -1.07370975      -1.16073525       0.46731737      -0.00722885
