14
Properties=species:S:1:pos:R:3:momenta:R:3:forces:R:3 charge=0 spin=1 energy=-17783.1471779435 free_energy=-17783.1471779435 stress="-1.316088318824768 0.17513777315616608 -0.020803336054086685 0.17513777315616608 -2.046696901321411 -1.7818753719329834 -0.020803336054086685 -1.7818753719329834 -0.2876545190811157" pbc="F F F"
C        9.92507557     -32.50534989     -33.56698072      -0.34491986       0.53684142       0.43555860       0.61181825       0.37292960       0.53119165
N        8.74774773     -30.80820596     -30.96076868      -0.23011732       0.05378271       0.17931367       0.41805974       0.86572415       0.31121707
N        8.66149048     -33.05873929     -34.02227061       0.73049458       0.90676610      -0.26796220      -0.99368227       0.40525106       1.31547463
C        7.67002899     -33.33483813     -32.99286707       0.02401276       0.43527447      -0.84608808       0.78302211      -0.28902557      -1.00735366
C       10.73497754     -31.90924328     -32.73558170       0.47811283       0.64466227      -0.03685868      -0.13011287      -0.12428040      -0.38291171
N        4.40606602     -34.53815491     -32.47950422      -0.45408412      -0.20357407       0.05661546      -0.43644074      -0.29008931       0.03816751
N        7.10066270     -35.13602449     -34.43722482       0.28242458      -0.40122887       0.38128954       0.40620255       0.12845260      -0.39888594
N        7.47049413     -32.72279198     -31.91095373       1.13137732       0.27009899       0.32601784       0.34456974       1.08538640       0.88181996
C        6.81118323     -34.43081550     -33.31747603       0.98276982       0.02541327       1.47212719      -0.83113164      -0.85542786      -1.44601524
C        8.20532437     -31.67424069     -31.48007329      -0.52823842      -0.82916653       0.24630276      -0.83927172      -1.26100385      -0.54706788
C        9.84259449     -33.80809203     -34.17295356      -0.98526695      -0.19007936      -0.56807597       0.01003799      -0.41768706      -0.25939783
O       10.24810226     -34.84541412     -34.53093612      -0.86829306      -0.36386137      -0.71305945       0.23445863      -0.06977344       0.00298640
C        7.45557044     -35.40922671     -35.52855058      -0.25221090      -1.10287042       0.34293786      -0.11189560      -0.31186789       0.07080786
C        5.48152498     -34.59597143     -32.88126448       0.03391898       0.21793474      -1.00836561       0.53436571       0.76141167       0.88996702
