36
Properties=species:S:1:pos:R:3:momenta:R:3:forces:R:3 charge=0 spin=1 energy=-53113.425364715884 free_energy=-53113.425364715884 stress="1.3237849473953247 3.1064395904541016 1.517066240310669 3.1064395904541016 -2.6941781044006348 2.5838818550109863 1.517066240310669 2.5838818550109863 -7.023905277252197" pbc="F F F"
C       -2.74142681      23.16136281     -29.66437557       0.00225679      -1.61504519       0.77250627       0.90876746      -0.60551077       0.99495029
C       -3.17187842      22.30578518     -28.63801305      -0.25107581      -0.00324935       0.04071945      -1.36057186       0.38755155      -1.01589119
C       -2.48848529      22.10748922     -27.47595489      -0.54113100       0.21373520      -0.78534049       1.10548854       0.80317754       1.00726187
C       -5.42766920      24.47185565     -31.86575526      -0.05133908      -0.44613064      -0.09921816      -0.92607147      -0.68829185      -2.63145995
C       -3.49599608      23.24946167     -30.96208529      -0.15248778      -0.85741134      -0.69906257      -0.27278441       0.30639079      -0.04445037
C       -5.82239821      23.79514991     -33.06056548       0.89179897      -0.19919078      -0.18136794      -1.41531634       3.12455463      -0.37541771
C       -6.71601217      24.58820685     -33.88636064      -0.35297525      -0.07859024       0.52635152       0.86778814      -0.68583983       0.33810198
C       -1.51905631      23.78634858     -29.39411079       0.21782899       1.02952944       0.41321683      -1.09579527       0.29120517      -1.36011398
C       -1.27405368      22.77878411     -27.23671124       0.59474728       0.12646085      -0.02763989      -1.63382769      -0.81001908      -1.73447394
C       -0.84083629      23.60493853     -28.23078370       0.50223411      -0.37394939       0.32070141       2.93301272       1.01886451       0.98737532
Cl      -4.78045195      21.59387854     -28.86673435       1.11381785      -0.41347802       1.10977014       0.63404441      -0.11064448       0.37728858
O       -3.13239516      22.72419339     -31.97775478      -0.21978896      -1.33422890       0.86606698       0.46561995      -0.36189210      -0.46293294
N       -4.62853371      23.99976477     -30.88361946      -0.17382098      -0.10296368      -0.34576557       1.66649747      -1.81424940      -0.45983723
N       -7.11082481      25.85047501     -33.63527447      -0.49616512       0.02545221      -0.01690341       0.08935234      -1.74776125      -0.07753126
C       -6.67736214      26.34928615     -32.49208780       1.21481232       0.83202095      -0.46593326       0.05917646       2.39534330      -1.02079844
C       -5.84429492      25.75751566     -31.59274488      -0.74491688       0.31870782      -0.59304929      -0.63414806      -0.84044445      -0.65245157
N       -6.94766981      27.74740847     -32.37469269       0.78187040      -0.24882103       0.14154848      -0.30567738      -0.56394058       0.87257755
C       -6.68404389      28.44935037     -31.23503299       0.29658579       0.64907424      -0.22572459       0.35212338      -0.40477553       0.50439715
O       -5.92510754      28.06889458     -30.35250799       0.66166964      -0.42872966       1.46773453      -0.50005114       0.70024222      -0.22232220
C       -7.37028683      29.74938550     -31.15067077      -1.38053571       0.10333485       0.46490618       2.19419193       2.61927867       0.73979253
C       -6.98768876      30.65643825     -30.00948251      -1.21463662      -0.42605125      -0.82719466       0.54740578      -0.13701431       2.14296246
C       -6.36814389      30.99412747     -31.26959311      -0.26766619       0.53597169       0.14751579       1.20128918      -2.75731301       0.60417050
Cl      -0.81221152      24.88728406     -30.51898238       0.07835873       1.73360713       0.42164088      -0.13106284       0.11651798      -0.43102232
H       -2.88759325      21.57966705     -26.65279705      -0.11281571       0.31328685      -0.19536468      -0.61024898      -0.92743665       0.36016959
H       -5.45698073      22.87942765     -33.47484796      -0.15444102       0.00360288      -0.27459334       0.19629216      -0.42614347       0.43878695
H       -7.08659568      24.18468429     -34.84992548       0.12173609      -0.07175323      -0.46571575       0.34514388       0.12244000       0.74412280
H       -0.66643675      22.55725103     -26.40897972       0.16224927       0.03452748      -0.01103271       0.40831861      -0.03404037       1.12485325
H        0.15270630      24.13295151     -28.11545995      -0.13965895      -0.15447768      -0.34133972      -1.33164251      -0.61093682      -0.17543997
H       -4.89538661      24.35311560     -30.03675953      -0.03491954       0.07900024      -0.01015382      -0.18297134       0.94339234       2.71635747
H       -5.49790174      26.31256731     -30.75886894       0.01845022      -0.26108860      -0.13487972       0.27804276      -0.00008662       0.45171657
H       -7.63351683      28.15744830     -32.98951241       0.02191324       0.03495818      -0.11388785       0.05943241      -0.34977767      -0.23611514
H       -8.33362558      29.94521957     -31.46501588       0.24951962      -0.05824970      -0.13839083      -1.78986311      -0.24202083      -1.21727300
H       -6.41359522      30.25646794     -29.15444915       0.09944021       0.04592080       0.12809446      -0.07867289       0.00079420      -0.89524204
H       -7.67261005      31.41537935     -29.65311485      -0.17741208      -0.11706423       0.15441771      -0.47419503      -0.25614238      -0.18761125
H       -6.58344466      31.92515420     -31.68335723       0.12651647       0.11897529       0.05091500      -0.40836388       1.07721472      -1.19728100
F       -5.02691681      30.62623649     -31.45002737      -0.69003150       0.99213970      -1.07371260      -1.16072369       0.46731389      -0.00721941
